<?xml version="1.0" encoding="UTF-8"?>

<!-- generated on 2022-10-15 01:45:52 by Eclipse SUMO sumo Version 1.14.1
<configuration xmlns:xsi="http://www.w3.org/2001/XMLSchema-instance" xsi:noNamespaceSchemaLocation="http://sumo.dlr.de/xsd/sumoConfiguration.xsd">

    <input>
        <net-file value="SUMO_sample/intersection.net.xml"/>
        <route-files value="SUMO_sample/intersection.rou.xml"/>
        <additional-files value="SUMO_sample/intersection.add.xml"/>
    </input>

    <output>
        <queue-output value="SUMO_sample/out.xml"/>
    </output>

    <report>
        <verbose value="true"/>
        <no-step-log value="true"/>
    </report>

</configuration>
-->

<queue-export xmlns:xsi="http://www.w3.org/2001/XMLSchema-instance" xsi:noNamespaceSchemaLocation="http://sumo.dlr.de/xsd/queue_file.xsd">
    <data timestep="0.00">
        <lanes/>
    </data>
    <data timestep="1.00">
        <lanes/>
    </data>
    <data timestep="2.00">
        <lanes/>
    </data>
    <data timestep="3.00">
        <lanes/>
    </data>
    <data timestep="4.00">
        <lanes/>
    </data>
    <data timestep="5.00">
        <lanes/>
    </data>
    <data timestep="6.00">
        <lanes/>
    </data>
    <data timestep="7.00">
        <lanes/>
    </data>
    <data timestep="8.00">
        <lanes/>
    </data>
    <data timestep="9.00">
        <lanes/>
    </data>
    <data timestep="10.00">
        <lanes/>
    </data>
    <data timestep="11.00">
        <lanes/>
    </data>
    <data timestep="12.00">
        <lanes/>
    </data>
    <data timestep="13.00">
        <lanes/>
    </data>
    <data timestep="14.00">
        <lanes/>
    </data>
    <data timestep="15.00">
        <lanes/>
    </data>
    <data timestep="16.00">
        <lanes/>
    </data>
    <data timestep="17.00">
        <lanes/>
    </data>
    <data timestep="18.00">
        <lanes/>
    </data>
    <data timestep="19.00">
        <lanes/>
    </data>
    <data timestep="20.00">
        <lanes/>
    </data>
    <data timestep="21.00">
        <lanes/>
    </data>
    <data timestep="22.00">
        <lanes/>
    </data>
    <data timestep="23.00">
        <lanes/>
    </data>
    <data timestep="24.00">
        <lanes/>
    </data>
    <data timestep="25.00">
        <lanes/>
    </data>
    <data timestep="26.00">
        <lanes/>
    </data>
    <data timestep="27.00">
        <lanes/>
    </data>
    <data timestep="28.00">
        <lanes/>
    </data>
    <data timestep="29.00">
        <lanes/>
    </data>
    <data timestep="30.00">
        <lanes/>
    </data>
    <data timestep="31.00">
        <lanes/>
    </data>
    <data timestep="32.00">
        <lanes>
            <lane id="1i_2" queueing_time="0.00" queueing_length="0.00" queueing_length_experimental="6.87"/>
        </lanes>
    </data>
    <data timestep="33.00">
        <lanes>
            <lane id="1i_2" queueing_time="0.00" queueing_length="0.00" queueing_length_experimental="6.11"/>
            <lane id="2i_0" queueing_time="0.00" queueing_length="0.00" queueing_length_experimental="6.35"/>
        </lanes>
    </data>
    <data timestep="34.00">
        <lanes>
            <lane id="1i_2" queueing_time="1.00" queueing_length="6.02" queueing_length_experimental="6.02"/>
            <lane id="2i_0" queueing_time="0.00" queueing_length="0.00" queueing_length_experimental="6.15"/>
        </lanes>
    </data>
    <data timestep="35.00">
        <lanes>
            <lane id="1i_0" queueing_time="1.00" queueing_length="6.04" queueing_length_experimental="6.04"/>
            <lane id="1i_2" queueing_time="2.00" queueing_length="6.00" queueing_length_experimental="6.00"/>
            <lane id="2i_0" queueing_time="0.00" queueing_length="0.00" queueing_length_experimental="6.02"/>
            <lane id="2i_1" queueing_time="1.00" queueing_length="6.00" queueing_length_experimental="6.00"/>
        </lanes>
    </data>
    <data timestep="36.00">
        <lanes>
            <lane id="1i_0" queueing_time="2.00" queueing_length="6.01" queueing_length_experimental="6.01"/>
            <lane id="1i_2" queueing_time="3.00" queueing_length="6.00" queueing_length_experimental="6.00"/>
            <lane id="2i_0" queueing_time="1.00" queueing_length="6.01" queueing_length_experimental="6.01"/>
            <lane id="2i_1" queueing_time="2.00" queueing_length="6.00" queueing_length_experimental="6.00"/>
        </lanes>
    </data>
    <data timestep="37.00">
        <lanes>
            <lane id="1i_0" queueing_time="3.00" queueing_length="6.00" queueing_length_experimental="6.00"/>
            <lane id="1i_2" queueing_time="4.00" queueing_length="6.00" queueing_length_experimental="6.00"/>
            <lane id="2i_0" queueing_time="2.00" queueing_length="6.00" queueing_length_experimental="6.00"/>
            <lane id="2i_1" queueing_time="3.00" queueing_length="6.00" queueing_length_experimental="6.00"/>
        </lanes>
    </data>
    <data timestep="38.00">
        <lanes>
            <lane id="1i_0" queueing_time="4.00" queueing_length="6.00" queueing_length_experimental="6.00"/>
            <lane id="1i_2" queueing_time="5.00" queueing_length="6.00" queueing_length_experimental="6.00"/>
            <lane id="2i_0" queueing_time="3.00" queueing_length="6.00" queueing_length_experimental="6.00"/>
            <lane id="2i_1" queueing_time="4.00" queueing_length="6.00" queueing_length_experimental="6.00"/>
            <lane id="2i_2" queueing_time="1.00" queueing_length="6.01" queueing_length_experimental="6.01"/>
        </lanes>
    </data>
    <data timestep="39.00">
        <lanes>
            <lane id="1i_0" queueing_time="5.00" queueing_length="6.00" queueing_length_experimental="6.00"/>
            <lane id="1i_2" queueing_time="6.00" queueing_length="6.00" queueing_length_experimental="6.00"/>
        </lanes>
    </data>
    <data timestep="40.00">
        <lanes>
            <lane id="1i_0" queueing_time="6.00" queueing_length="6.00" queueing_length_experimental="6.00"/>
            <lane id="1i_2" queueing_time="7.00" queueing_length="6.00" queueing_length_experimental="6.00"/>
            <lane id="3i_0" queueing_time="0.00" queueing_length="0.00" queueing_length_experimental="6.17"/>
        </lanes>
    </data>
    <data timestep="41.00">
        <lanes>
            <lane id="1i_0" queueing_time="7.00" queueing_length="6.00" queueing_length_experimental="6.00"/>
            <lane id="1i_2" queueing_time="8.00" queueing_length="6.00" queueing_length_experimental="6.00"/>
            <lane id="3i_0" queueing_time="1.00" queueing_length="6.08" queueing_length_experimental="6.08"/>
            <lane id="3i_1" queueing_time="0.00" queueing_length="0.00" queueing_length_experimental="6.99"/>
            <lane id="4i_0" queueing_time="0.00" queueing_length="0.00" queueing_length_experimental="6.15"/>
            <lane id="4i_1" queueing_time="0.00" queueing_length="0.00" queueing_length_experimental="6.44"/>
        </lanes>
    </data>
    <data timestep="42.00">
        <lanes>
            <lane id="1i_0" queueing_time="8.00" queueing_length="6.00" queueing_length_experimental="6.00"/>
            <lane id="1i_2" queueing_time="9.00" queueing_length="6.00" queueing_length_experimental="6.00"/>
            <lane id="3i_0" queueing_time="2.00" queueing_length="6.02" queueing_length_experimental="6.02"/>
            <lane id="3i_1" queueing_time="0.00" queueing_length="0.00" queueing_length_experimental="6.39"/>
            <lane id="4i_0" queueing_time="0.00" queueing_length="0.00" queueing_length_experimental="6.03"/>
            <lane id="4i_1" queueing_time="0.00" queueing_length="0.00" queueing_length_experimental="6.04"/>
        </lanes>
    </data>
    <data timestep="43.00">
        <lanes>
            <lane id="1i_0" queueing_time="9.00" queueing_length="6.00" queueing_length_experimental="6.00"/>
            <lane id="1i_1" queueing_time="0.00" queueing_length="0.00" queueing_length_experimental="6.22"/>
            <lane id="1i_2" queueing_time="10.00" queueing_length="13.53" queueing_length_experimental="13.53"/>
            <lane id="3i_0" queueing_time="3.00" queueing_length="6.01" queueing_length_experimental="13.88"/>
            <lane id="3i_1" queueing_time="0.00" queueing_length="0.00" queueing_length_experimental="6.05"/>
            <lane id="4i_0" queueing_time="1.00" queueing_length="6.00" queueing_length_experimental="6.00"/>
            <lane id="4i_1" queueing_time="1.00" queueing_length="6.00" queueing_length_experimental="6.00"/>
        </lanes>
    </data>
    <data timestep="44.00">
        <lanes>
            <lane id="1i_0" queueing_time="10.00" queueing_length="6.00" queueing_length_experimental="6.00"/>
            <lane id="1i_1" queueing_time="0.00" queueing_length="0.00" queueing_length_experimental="6.05"/>
            <lane id="1i_2" queueing_time="11.00" queueing_length="13.51" queueing_length_experimental="21.25"/>
            <lane id="3i_0" queueing_time="4.00" queueing_length="6.00" queueing_length_experimental="13.53"/>
            <lane id="3i_1" queueing_time="1.00" queueing_length="6.01" queueing_length_experimental="6.01"/>
            <lane id="4i_0" queueing_time="2.00" queueing_length="6.00" queueing_length_experimental="6.00"/>
            <lane id="4i_1" queueing_time="2.00" queueing_length="6.00" queueing_length_experimental="6.00"/>
        </lanes>
    </data>
    <data timestep="45.00">
        <lanes>
            <lane id="1i_0" queueing_time="11.00" queueing_length="6.00" queueing_length_experimental="13.74"/>
            <lane id="1i_1" queueing_time="1.00" queueing_length="6.03" queueing_length_experimental="6.03"/>
            <lane id="1i_2" queueing_time="12.00" queueing_length="13.50" queueing_length_experimental="21.07"/>
            <lane id="3i_0" queueing_time="5.00" queueing_length="13.51" queueing_length_experimental="13.51"/>
            <lane id="3i_1" queueing_time="2.00" queueing_length="6.00" queueing_length_experimental="6.00"/>
            <lane id="4i_0" queueing_time="3.00" queueing_length="6.00" queueing_length_experimental="6.00"/>
            <lane id="4i_1" queueing_time="3.00" queueing_length="6.00" queueing_length_experimental="6.00"/>
            <lane id="4i_2" queueing_time="0.00" queueing_length="0.00" queueing_length_experimental="6.39"/>
        </lanes>
    </data>
    <data timestep="46.00">
        <lanes>
            <lane id="1i_0" queueing_time="12.00" queueing_length="6.00" queueing_length_experimental="13.51"/>
            <lane id="1i_1" queueing_time="2.00" queueing_length="6.00" queueing_length_experimental="6.00"/>
            <lane id="1i_2" queueing_time="13.00" queueing_length="21.03" queueing_length_experimental="21.03"/>
            <lane id="3i_0" queueing_time="6.00" queueing_length="13.50" queueing_length_experimental="13.50"/>
            <lane id="3i_1" queueing_time="3.00" queueing_length="6.00" queueing_length_experimental="6.00"/>
            <lane id="4i_0" queueing_time="4.00" queueing_length="6.00" queueing_length_experimental="6.00"/>
            <lane id="4i_1" queueing_time="4.00" queueing_length="6.00" queueing_length_experimental="6.00"/>
            <lane id="4i_2" queueing_time="0.00" queueing_length="0.00" queueing_length_experimental="6.13"/>
        </lanes>
    </data>
    <data timestep="47.00">
        <lanes>
            <lane id="1i_0" queueing_time="13.00" queueing_length="13.50" queueing_length_experimental="13.50"/>
            <lane id="1i_1" queueing_time="3.00" queueing_length="6.00" queueing_length_experimental="6.00"/>
            <lane id="1i_2" queueing_time="14.00" queueing_length="21.00" queueing_length_experimental="21.00"/>
            <lane id="3i_0" queueing_time="7.00" queueing_length="13.50" queueing_length_experimental="13.50"/>
            <lane id="3i_1" queueing_time="4.00" queueing_length="6.00" queueing_length_experimental="6.00"/>
            <lane id="4i_0" queueing_time="5.00" queueing_length="6.00" queueing_length_experimental="6.00"/>
            <lane id="4i_1" queueing_time="5.00" queueing_length="6.00" queueing_length_experimental="6.00"/>
            <lane id="4i_2" queueing_time="0.00" queueing_length="0.00" queueing_length_experimental="6.02"/>
        </lanes>
    </data>
    <data timestep="48.00">
        <lanes>
            <lane id="1i_0" queueing_time="14.00" queueing_length="13.50" queueing_length_experimental="13.50"/>
            <lane id="1i_1" queueing_time="4.00" queueing_length="6.00" queueing_length_experimental="6.00"/>
            <lane id="1i_2" queueing_time="15.00" queueing_length="21.00" queueing_length_experimental="21.00"/>
            <lane id="3i_0" queueing_time="8.00" queueing_length="13.50" queueing_length_experimental="13.50"/>
            <lane id="3i_1" queueing_time="5.00" queueing_length="6.00" queueing_length_experimental="6.00"/>
            <lane id="3i_2" queueing_time="0.00" queueing_length="0.00" queueing_length_experimental="6.03"/>
            <lane id="4i_0" queueing_time="6.00" queueing_length="6.00" queueing_length_experimental="6.00"/>
            <lane id="4i_1" queueing_time="6.00" queueing_length="6.00" queueing_length_experimental="13.58"/>
            <lane id="4i_2" queueing_time="1.00" queueing_length="6.01" queueing_length_experimental="6.01"/>
        </lanes>
    </data>
    <data timestep="49.00">
        <lanes>
            <lane id="1i_0" queueing_time="15.00" queueing_length="13.50" queueing_length_experimental="13.50"/>
            <lane id="1i_1" queueing_time="5.00" queueing_length="6.00" queueing_length_experimental="6.00"/>
            <lane id="1i_2" queueing_time="16.00" queueing_length="21.00" queueing_length_experimental="21.00"/>
            <lane id="3i_0" queueing_time="9.00" queueing_length="13.50" queueing_length_experimental="13.50"/>
            <lane id="3i_1" queueing_time="6.00" queueing_length="6.00" queueing_length_experimental="6.00"/>
            <lane id="3i_2" queueing_time="1.00" queueing_length="6.01" queueing_length_experimental="6.01"/>
            <lane id="4i_0" queueing_time="7.00" queueing_length="6.00" queueing_length_experimental="6.00"/>
            <lane id="4i_1" queueing_time="7.00" queueing_length="13.52" queueing_length_experimental="13.52"/>
            <lane id="4i_2" queueing_time="2.00" queueing_length="6.00" queueing_length_experimental="6.00"/>
        </lanes>
    </data>
    <data timestep="50.00">
        <lanes>
            <lane id="1i_0" queueing_time="16.00" queueing_length="13.50" queueing_length_experimental="13.50"/>
            <lane id="1i_1" queueing_time="6.00" queueing_length="6.00" queueing_length_experimental="6.00"/>
            <lane id="1i_2" queueing_time="17.00" queueing_length="21.00" queueing_length_experimental="21.00"/>
            <lane id="3i_0" queueing_time="10.00" queueing_length="13.50" queueing_length_experimental="13.50"/>
            <lane id="3i_1" queueing_time="7.00" queueing_length="6.00" queueing_length_experimental="6.00"/>
            <lane id="3i_2" queueing_time="2.00" queueing_length="6.01" queueing_length_experimental="6.01"/>
            <lane id="4i_0" queueing_time="8.00" queueing_length="6.00" queueing_length_experimental="6.00"/>
            <lane id="4i_1" queueing_time="8.00" queueing_length="13.50" queueing_length_experimental="13.50"/>
            <lane id="4i_2" queueing_time="3.00" queueing_length="6.00" queueing_length_experimental="6.00"/>
        </lanes>
    </data>
    <data timestep="51.00">
        <lanes>
            <lane id="1i_0" queueing_time="17.00" queueing_length="13.50" queueing_length_experimental="13.50"/>
            <lane id="1i_1" queueing_time="7.00" queueing_length="6.00" queueing_length_experimental="6.00"/>
            <lane id="1i_2" queueing_time="18.00" queueing_length="21.00" queueing_length_experimental="21.00"/>
            <lane id="3i_0" queueing_time="11.00" queueing_length="13.50" queueing_length_experimental="13.50"/>
            <lane id="3i_1" queueing_time="8.00" queueing_length="6.00" queueing_length_experimental="6.00"/>
            <lane id="3i_2" queueing_time="3.00" queueing_length="6.00" queueing_length_experimental="13.53"/>
            <lane id="4i_0" queueing_time="9.00" queueing_length="6.00" queueing_length_experimental="6.00"/>
            <lane id="4i_1" queueing_time="9.00" queueing_length="13.50" queueing_length_experimental="13.50"/>
            <lane id="4i_2" queueing_time="4.00" queueing_length="6.00" queueing_length_experimental="6.00"/>
        </lanes>
    </data>
    <data timestep="52.00">
        <lanes>
            <lane id="1i_0" queueing_time="18.00" queueing_length="13.50" queueing_length_experimental="13.50"/>
            <lane id="1i_1" queueing_time="8.00" queueing_length="6.00" queueing_length_experimental="6.00"/>
            <lane id="1i_2" queueing_time="19.00" queueing_length="21.00" queueing_length_experimental="21.00"/>
            <lane id="3i_0" queueing_time="12.00" queueing_length="13.50" queueing_length_experimental="13.50"/>
            <lane id="3i_1" queueing_time="9.00" queueing_length="6.00" queueing_length_experimental="6.00"/>
            <lane id="3i_2" queueing_time="4.00" queueing_length="13.51" queueing_length_experimental="13.51"/>
            <lane id="4i_0" queueing_time="10.00" queueing_length="6.00" queueing_length_experimental="6.00"/>
            <lane id="4i_1" queueing_time="10.00" queueing_length="13.50" queueing_length_experimental="13.50"/>
            <lane id="4i_2" queueing_time="5.00" queueing_length="6.00" queueing_length_experimental="13.98"/>
        </lanes>
    </data>
    <data timestep="53.00">
        <lanes>
            <lane id="1i_0" queueing_time="19.00" queueing_length="13.50" queueing_length_experimental="13.50"/>
            <lane id="1i_1" queueing_time="9.00" queueing_length="6.00" queueing_length_experimental="13.51"/>
            <lane id="1i_2" queueing_time="20.00" queueing_length="21.00" queueing_length_experimental="21.00"/>
            <lane id="3i_0" queueing_time="13.00" queueing_length="13.50" queueing_length_experimental="13.50"/>
            <lane id="3i_1" queueing_time="10.00" queueing_length="6.00" queueing_length_experimental="6.00"/>
            <lane id="3i_2" queueing_time="5.00" queueing_length="13.50" queueing_length_experimental="21.43"/>
            <lane id="4i_0" queueing_time="11.00" queueing_length="6.00" queueing_length_experimental="6.00"/>
            <lane id="4i_1" queueing_time="11.00" queueing_length="13.50" queueing_length_experimental="13.50"/>
            <lane id="4i_2" queueing_time="6.00" queueing_length="6.00" queueing_length_experimental="13.67"/>
        </lanes>
    </data>
    <data timestep="54.00">
        <lanes>
            <lane id="1i_0" queueing_time="20.00" queueing_length="13.50" queueing_length_experimental="13.50"/>
            <lane id="1i_1" queueing_time="10.00" queueing_length="13.51" queueing_length_experimental="13.51"/>
            <lane id="1i_2" queueing_time="21.00" queueing_length="21.00" queueing_length_experimental="28.57"/>
            <lane id="3i_0" queueing_time="14.00" queueing_length="13.50" queueing_length_experimental="13.50"/>
            <lane id="3i_1" queueing_time="11.00" queueing_length="6.00" queueing_length_experimental="6.00"/>
            <lane id="3i_2" queueing_time="6.00" queueing_length="13.50" queueing_length_experimental="21.19"/>
            <lane id="4i_0" queueing_time="12.00" queueing_length="6.00" queueing_length_experimental="6.00"/>
            <lane id="4i_1" queueing_time="12.00" queueing_length="13.50" queueing_length_experimental="13.50"/>
            <lane id="4i_2" queueing_time="7.00" queueing_length="6.00" queueing_length_experimental="13.51"/>
        </lanes>
    </data>
    <data timestep="55.00">
        <lanes>
            <lane id="1i_0" queueing_time="21.00" queueing_length="13.50" queueing_length_experimental="13.50"/>
            <lane id="1i_1" queueing_time="11.00" queueing_length="13.50" queueing_length_experimental="13.50"/>
            <lane id="1i_2" queueing_time="22.00" queueing_length="28.52" queueing_length_experimental="28.52"/>
            <lane id="3i_0" queueing_time="15.00" queueing_length="13.50" queueing_length_experimental="13.50"/>
            <lane id="3i_1" queueing_time="12.00" queueing_length="6.00" queueing_length_experimental="14.21"/>
            <lane id="3i_2" queueing_time="7.00" queueing_length="13.50" queueing_length_experimental="21.03"/>
            <lane id="4i_0" queueing_time="13.00" queueing_length="6.00" queueing_length_experimental="6.00"/>
            <lane id="4i_1" queueing_time="13.00" queueing_length="13.50" queueing_length_experimental="13.50"/>
            <lane id="4i_2" queueing_time="8.00" queueing_length="13.50" queueing_length_experimental="13.50"/>
        </lanes>
    </data>
    <data timestep="56.00">
        <lanes>
            <lane id="1i_0" queueing_time="22.00" queueing_length="13.50" queueing_length_experimental="13.50"/>
            <lane id="1i_1" queueing_time="12.00" queueing_length="13.50" queueing_length_experimental="21.03"/>
            <lane id="1i_2" queueing_time="23.00" queueing_length="28.51" queueing_length_experimental="28.51"/>
            <lane id="3i_0" queueing_time="16.00" queueing_length="13.50" queueing_length_experimental="13.50"/>
            <lane id="3i_1" queueing_time="13.00" queueing_length="6.00" queueing_length_experimental="13.58"/>
            <lane id="3i_2" queueing_time="8.00" queueing_length="21.00" queueing_length_experimental="28.55"/>
            <lane id="4i_0" queueing_time="14.00" queueing_length="6.00" queueing_length_experimental="6.00"/>
            <lane id="4i_1" queueing_time="14.00" queueing_length="13.50" queueing_length_experimental="13.50"/>
            <lane id="4i_2" queueing_time="9.00" queueing_length="13.50" queueing_length_experimental="21.49"/>
        </lanes>
    </data>
    <data timestep="57.00">
        <lanes>
            <lane id="1i_0" queueing_time="23.00" queueing_length="13.50" queueing_length_experimental="13.50"/>
            <lane id="1i_1" queueing_time="13.00" queueing_length="21.01" queueing_length_experimental="21.01"/>
            <lane id="1i_2" queueing_time="24.00" queueing_length="28.50" queueing_length_experimental="28.50"/>
            <lane id="3i_0" queueing_time="17.00" queueing_length="13.50" queueing_length_experimental="13.50"/>
            <lane id="3i_1" queueing_time="14.00" queueing_length="13.52" queueing_length_experimental="13.52"/>
            <lane id="3i_2" queueing_time="9.00" queueing_length="28.51" queueing_length_experimental="28.51"/>
            <lane id="4i_0" queueing_time="15.00" queueing_length="6.00" queueing_length_experimental="6.00"/>
            <lane id="4i_1" queueing_time="15.00" queueing_length="13.50" queueing_length_experimental="13.50"/>
            <lane id="4i_2" queueing_time="10.00" queueing_length="13.50" queueing_length_experimental="21.24"/>
        </lanes>
    </data>
    <data timestep="58.00">
        <lanes>
            <lane id="1i_0" queueing_time="24.00" queueing_length="13.50" queueing_length_experimental="13.50"/>
            <lane id="1i_1" queueing_time="14.00" queueing_length="21.01" queueing_length_experimental="21.01"/>
            <lane id="1i_2" queueing_time="25.00" queueing_length="28.50" queueing_length_experimental="36.28"/>
            <lane id="3i_0" queueing_time="18.00" queueing_length="13.50" queueing_length_experimental="13.50"/>
            <lane id="3i_1" queueing_time="15.00" queueing_length="28.50" queueing_length_experimental="28.50"/>
            <lane id="3i_2" queueing_time="10.00" queueing_length="21.00" queueing_length_experimental="21.00"/>
            <lane id="4i_0" queueing_time="16.00" queueing_length="6.00" queueing_length_experimental="6.00"/>
            <lane id="4i_1" queueing_time="16.00" queueing_length="13.50" queueing_length_experimental="13.50"/>
            <lane id="4i_2" queueing_time="11.00" queueing_length="13.50" queueing_length_experimental="21.06"/>
        </lanes>
    </data>
    <data timestep="59.00">
        <lanes>
            <lane id="1i_0" queueing_time="25.00" queueing_length="13.50" queueing_length_experimental="13.50"/>
            <lane id="1i_1" queueing_time="15.00" queueing_length="21.00" queueing_length_experimental="21.00"/>
            <lane id="1i_2" queueing_time="26.00" queueing_length="28.50" queueing_length_experimental="36.08"/>
            <lane id="3i_0" queueing_time="19.00" queueing_length="13.50" queueing_length_experimental="13.50"/>
            <lane id="3i_1" queueing_time="16.00" queueing_length="13.50" queueing_length_experimental="13.50"/>
            <lane id="3i_2" queueing_time="11.00" queueing_length="21.00" queueing_length_experimental="21.00"/>
            <lane id="4i_0" queueing_time="17.00" queueing_length="6.00" queueing_length_experimental="13.66"/>
            <lane id="4i_1" queueing_time="17.00" queueing_length="13.50" queueing_length_experimental="13.50"/>
            <lane id="4i_2" queueing_time="12.00" queueing_length="21.03" queueing_length_experimental="21.03"/>
        </lanes>
    </data>
    <data timestep="60.00">
        <lanes>
            <lane id="1i_0" queueing_time="26.00" queueing_length="13.50" queueing_length_experimental="13.50"/>
            <lane id="1i_1" queueing_time="16.00" queueing_length="21.00" queueing_length_experimental="21.00"/>
            <lane id="1i_2" queueing_time="27.00" queueing_length="36.03" queueing_length_experimental="36.03"/>
            <lane id="3i_0" queueing_time="20.00" queueing_length="13.50" queueing_length_experimental="13.50"/>
            <lane id="3i_1" queueing_time="17.00" queueing_length="13.50" queueing_length_experimental="13.50"/>
            <lane id="3i_2" queueing_time="12.00" queueing_length="21.00" queueing_length_experimental="21.00"/>
            <lane id="4i_0" queueing_time="18.00" queueing_length="6.00" queueing_length_experimental="13.52"/>
            <lane id="4i_1" queueing_time="18.00" queueing_length="13.50" queueing_length_experimental="13.50"/>
            <lane id="4i_2" queueing_time="13.00" queueing_length="21.00" queueing_length_experimental="21.00"/>
        </lanes>
    </data>
    <data timestep="61.00">
        <lanes>
            <lane id="1i_0" queueing_time="27.00" queueing_length="13.50" queueing_length_experimental="13.50"/>
            <lane id="1i_1" queueing_time="17.00" queueing_length="21.00" queueing_length_experimental="21.00"/>
            <lane id="1i_2" queueing_time="28.00" queueing_length="36.02" queueing_length_experimental="36.02"/>
            <lane id="3i_0" queueing_time="21.00" queueing_length="13.50" queueing_length_experimental="13.50"/>
            <lane id="3i_1" queueing_time="18.00" queueing_length="13.50" queueing_length_experimental="21.17"/>
            <lane id="3i_2" queueing_time="13.00" queueing_length="21.00" queueing_length_experimental="21.00"/>
            <lane id="4i_0" queueing_time="19.00" queueing_length="13.51" queueing_length_experimental="13.51"/>
            <lane id="4i_1" queueing_time="19.00" queueing_length="13.50" queueing_length_experimental="13.50"/>
            <lane id="4i_2" queueing_time="14.00" queueing_length="21.00" queueing_length_experimental="21.00"/>
        </lanes>
    </data>
    <data timestep="62.00">
        <lanes>
            <lane id="1i_0" queueing_time="28.00" queueing_length="13.50" queueing_length_experimental="13.50"/>
            <lane id="1i_1" queueing_time="18.00" queueing_length="21.00" queueing_length_experimental="21.00"/>
            <lane id="1i_2" queueing_time="29.00" queueing_length="36.01" queueing_length_experimental="36.01"/>
            <lane id="3i_0" queueing_time="22.00" queueing_length="13.50" queueing_length_experimental="13.50"/>
            <lane id="3i_1" queueing_time="19.00" queueing_length="13.50" queueing_length_experimental="21.06"/>
            <lane id="3i_2" queueing_time="14.00" queueing_length="21.00" queueing_length_experimental="21.00"/>
            <lane id="4i_0" queueing_time="20.00" queueing_length="13.50" queueing_length_experimental="13.50"/>
            <lane id="4i_1" queueing_time="20.00" queueing_length="13.50" queueing_length_experimental="13.50"/>
            <lane id="4i_2" queueing_time="15.00" queueing_length="21.00" queueing_length_experimental="21.00"/>
        </lanes>
    </data>
    <data timestep="63.00">
        <lanes>
            <lane id="1i_0" queueing_time="29.00" queueing_length="13.50" queueing_length_experimental="13.50"/>
            <lane id="1i_1" queueing_time="19.00" queueing_length="21.00" queueing_length_experimental="21.00"/>
            <lane id="1i_2" queueing_time="30.00" queueing_length="36.01" queueing_length_experimental="43.51"/>
            <lane id="3i_0" queueing_time="23.00" queueing_length="13.50" queueing_length_experimental="13.50"/>
            <lane id="3i_1" queueing_time="20.00" queueing_length="21.01" queueing_length_experimental="21.01"/>
            <lane id="3i_2" queueing_time="15.00" queueing_length="28.55" queueing_length_experimental="28.55"/>
            <lane id="4i_0" queueing_time="21.00" queueing_length="13.50" queueing_length_experimental="13.50"/>
            <lane id="4i_1" queueing_time="21.00" queueing_length="13.50" queueing_length_experimental="13.50"/>
            <lane id="4i_2" queueing_time="16.00" queueing_length="21.00" queueing_length_experimental="28.56"/>
        </lanes>
    </data>
    <data timestep="64.00">
        <lanes>
            <lane id="1i_0" queueing_time="30.00" queueing_length="13.50" queueing_length_experimental="13.50"/>
            <lane id="1i_1" queueing_time="20.00" queueing_length="21.00" queueing_length_experimental="21.00"/>